LAMMPS data file via write_data, version 29 Oct 2020, timestep = 67

319 atoms
4 atom types

0.0 21.608938418400747 xlo xhi
0.0 21.608938418400747 ylo yhi
0.0 21.608938418400747 zlo zhi

Masses

1 132.9054519
2 35.45
3 22.98976928
4 173.054

Atoms # atomic

1 2 0.08617561012720425 5.3933719671374165 2.8075405787228966 0 0 0
2 1 2.7154418546839048 2.692733453152882 2.697701235159892 0 0 0
4 2 2.581430511113827 5.393371975877728 5.4420015938433535 0 0 0
6 2 0.0016437041995974913 2.580897376971387 10.798120956223363 0 0 0
10 2 2.8141993100468623 5.393371982883407 10.791618915411426 0 0 0
9 1 2.7002086139699206 2.694308887719927 8.097048211082901 0 0 0
11 2 0.009443471641526894 5.393371966074618 13.61951099563325 0 0 0
12 1 2.701000203669251 2.693715962590776 13.50205188244851 0 0 0
14 2 2.585099698050838 5.39337198502032 16.224019130591962 0 0 0
16 2 0.004016730073649708 2.574120290987333 21.605372801479678 0 0 0
20 2 2.8167685341150728 5.393371975432533 21.59102945275975 0 0 0
19 1 2.704132488381714 2.692783837329525 18.90469629353086 0 0 0
22 1 2.715441854978294 8.094010484415854 2.6977012351951655 0 0 0
25 2 2.8163155231499832 10.79456808504496 5.399790427212582 0 0 0
24 3 0.006448865200192428 10.799960991652776 5.400824764389752 0 0 0
26 2 0.000709920321363102 10.794222044820886 8.21074139036769 0 0 0
27 4 0.0010217085722388707 10.794533835442136 10.799301927440368 0 0 0
28 2 0.001643676121871484 8.205846561205231 10.798120962176498 0 0 0
29 2 2.5893677171938823 10.794990840366394 10.799366457262277 0 0 0
30 1 2.7002086140662933 8.09243505070375 8.097048211228662 0 0 0
32 1 2.7010002037102994 8.09302797514887 13.502051882439618 0 0 0
35 2 2.816034823486783 10.795139895333577 16.199023584245367 0 0 0
34 3 0.003274304744148911 10.796786431658369 16.198804799431837 0 0 0
36 2 0.004970174451245484 10.79848229911716 19.012033162595834 0 0 0
37 4 0.008444769084958675 10.801956895899847 21.599265258879562 0 0 -1
38 2 0.00401671594319241 8.212623647335898 21.605372805771637 0 0 0
39 2 2.5953307352278805 10.799708180585172 21.598016525165594 0 0 0
40 1 2.7041324880282067 8.0939601012042 18.90469629360716 0 0 0
41 2 0.002612862539557142 16.197841175384784 2.8094840593745336 0 0 0
42 1 2.704083058780977 13.497595185463627 2.696611166616083 0 0 0
21 2 0.011737074706601519 10.805249203684195 2.5816297456863206 0 0 0
43 4 0.0016675150502348257 16.197841178118484 5.398325746649396 0 0 0
44 2 2.590034553697839 16.19784118626051 5.398615482297197 0 0 0
45 2 0.0010559741669318634 13.609827649654243 5.399790429674155 0 0 0
46 2 0.0014787415721601144 13.38287984406095 10.799366454826426 0 0 0
50 2 2.815784549478848 16.197841192253044 10.798734413800778 0 0 0
48 3 0.0012524973132996935 16.197841178312007 10.799188121981015 0 0 0
49 1 2.703134059332159 13.496646186119081 8.099490301920513 0 0 0
51 2 0.0024921869384698547 16.197841175500187 13.611855082426782 0 0 0
52 1 2.7030864914235937 13.496598618201757 13.499242094710093 0 0 0
53 4 0.001432239490942939 16.197841178385964 16.199857519158616 0 0 0
54 2 2.590160077524126 16.197841194450554 16.20092596208289 0 0 0
55 2 0.00162780068151333 13.60954695035638 16.199023586556244 0 0 0
56 2 0.006196067112761875 13.3888428620719 21.5980165228628 0 0 0
57 2 0.0008445797324960106 16.197841181074548 18.788041133499647 0 0 0
58 3 0.0034643988318461324 16.197841178346955 21.6026530049483 0 0 -1
59 1 2.705019321055578 13.498531447989077 18.899347387473075 0 0 0
60 2 2.8164336535162477 16.197841185447373 21.603225115089327 0 0 0
61 2 0.011737073986748035 21.59043315757856 2.5816297459675988 0 0 0
62 1 2.70408305866451 18.898087170966384 2.6966111666983 0 0 0
63 2 0.001055958154224271 18.7858547065377 5.399790424116707 0 0 0
64 3 0.006448864821196726 21.595721364524493 5.400824764589377 0 -1 0
65 2 2.816315522849317 21.60111425555005 5.3997904262676855 0 0 0
66 2 0.0007099216394743377 21.601460306072745 8.210741390525751 0 0 0
67 4 0.0010217085941314592 21.601148521190204 10.799301927608854 0 -1 0
68 2 0.0014787135642912322 19.012802512571138 10.799366460768029 0 0 0
69 2 2.5893677172287326 21.600691488163527 10.79936645865692 0 0 0
70 1 2.7031340593337996 18.89903617039821 8.099490302049889 0 0 0
72 1 2.703086491411567 18.899083738368255 13.499242094817388 0 0 0
73 2 0.0016277685212982653 18.786135406418328 16.19902358112209 0 0 0
74 3 0.003274304733966074 21.59889592519025 16.198804799682993 0 -1 0
75 2 2.816034823473715 21.60054242913359 16.199023583235146 0 0 0
76 2 0.004970175161504458 21.597200052745077 19.01203316291782 0 0 0
77 4 0.008444769051893628 21.59372546078206 21.599265259193462 0 -1 -1
78 2 0.006196053784039676 19.00683949464821 21.598016528178835 0 0 0
79 2 2.595330735233091 21.595974162890812 21.598016526215254 0 0 0
80 1 2.705019321144315 18.897150908849355 18.899347387557484 0 0 0
81 2 5.40432905024717 5.393371961692659 2.5852835185989673 0 0 0
82 1 8.093216247916015 2.6927334536456797 2.6977012354938337 0 0 0
161 2 10.722482495820373 5.393371964186986 2.8075405787802516 -1 0 0
83 2 5.404329043382529 2.580839627371749 5.394048777045532 0 0 0
84 3 5.404329051146345 5.3933719690227715 5.402037894921186 0 0 0
85 2 8.227227591564693 5.39337196171489 5.442001591018834 0 0 0
86 2 5.404329053132387 5.393371977266579 8.213067353700758 0 0 0
87 2 7.994458792940273 5.393371955226072 10.791618918554807 0 0 0
88 2 5.404329037560353 2.805509756909376 10.801625153858074 0 0 0
89 4 5.404329051487976 5.39337196905416 10.80046518006793 0 0 0
90 1 8.108449488814125 2.6943088873218404 8.097048211356787 0 0 0
91 2 5.404329049933345 5.393371960911798 13.389411177818387 0 0 0
92 1 8.107657899231235 2.693715963015545 13.502051882635916 0 0 0
171 2 10.799214634615982 5.393371965461486 13.61951099579381 -1 0 0
93 2 5.40432903539158 2.580336309937476 16.199551985807542 0 0 0
94 3 5.404329051329036 5.3933719691051 16.204725624700078 0 0 0
95 2 8.223558404961137 5.393371953311898 16.224019127743052 0 0 0
96 2 5.4043290528503105 5.393371976877313 19.015334355735078 0 0 0
97 4 5.404329051492141 5.393371969094347 21.60309883370763 0 0 -1
98 2 7.991889568908859 5.393371962628178 21.591029455490446 0 0 0
99 2 5.4043290455459525 2.8047350517062566 21.60652457881092 0 0 0
100 1 8.104525615072282 2.692783837017847 18.904696293756647 0 0 0
101 2 5.404329051163863 10.79612499106249 2.809484059332375 0 0 0
102 1 8.093216248456017 8.094010484382242 2.6977012351055847 0 0 0
103 2 5.404329059293676 8.205904310610542 5.39404876135735 0 0 0
104 2 7.992342580038623 10.794568100860156 5.399790426320955 0 0 0
105 4 5.404329051583295 10.795179641771531 5.398325746591807 0 0 0
184 3 10.80220923802397 10.799960991947513 5.400824764466207 0 0 0
106 2 5.40432906538457 7.9812341811718035 10.801625170248258 0 0 0
107 2 5.404329052008409 10.793241658067373 7.986306544621234 0 0 0
108 3 5.4043290514772115 10.794764624072346 10.799188121939357 0 0 0
109 1 8.108449488985942 8.092435049952165 8.097048211045601 0 0 0
110 2 8.219290385698653 10.794990868366346 10.799366458273028 0 0 0
111 2 5.4043290510250905 10.796004315600142 13.611855082401856 0 0 0
112 1 8.10765789939004 8.093027975429045 13.50205188250715 0 0 0
113 2 5.404329067583335 8.206407628241008 16.19955196954719 0 0 0
114 2 7.992623279541477 10.795139927430501 16.199023583273014 0 0 0
115 4 5.404329051513061 10.794944366273088 16.199857519131015 0 0 0
116 2 5.404329057462655 7.982008886465597 21.606524593938005 0 0 0
117 2 5.404329052014884 10.794356704643015 18.78804113347267 0 0 0
118 3 5.4043290515372435 10.796976525572687 21.6026530049242 0 0 -1
119 1 8.104525614663654 8.09396010062576 18.90469629346415 0 0 0
120 2 8.213327367783966 10.799708194038903 21.598016526181233 0 0 0
196 2 10.803687927723129 10.79848229798602 19.01203316271048 -1 0 0
199 4 10.8002133339599 10.801956895833838 21.599265258984065 0 0 -1
121 2 5.404329045320803 16.197841170196305 2.583335121611112 0 0 0
122 1 8.104575044231952 13.49759518551169 2.6966111666561177 0 0 0
181 2 10.796921029451287 10.805249204917642 2.581629745777043 -1 0 0
123 2 5.404329043456219 13.38354668042962 5.398615484107399 0 0 0
124 3 5.404329051459643 16.19784117818683 5.397399297559445 0 0 0
125 2 8.2186235492111 16.197841170225026 5.398615470071625 0 0 0
126 2 5.404329057696675 16.197841186333108 8.210833760999424 0 0 0
127 2 7.992873553497341 16.197841164281957 10.798734426228934 0 0 0
128 2 5.4043290374935316 13.609296676246567 10.798734411897705 0 0 0
129 4 5.40432905148159 16.197841178249192 10.798972143332639 0 0 0
130 1 8.105524043564523 13.496646186078392 8.09949030196492 0 0 0
131 2 5.4043290452813295 16.19784117015102 13.387233414358011 0 0 0
132 1 8.105571611607491 13.496598618230594 13.499242094770484 0 0 0
133 2 5.4043290354671125 13.3836722043097 16.20092596394923 0 0 0
134 3 5.404329051518138 16.197841178304923 16.200509979629256 0 0 0
135 2 8.218498025512506 16.197841162320305 16.20092594971815 0 0 0
136 2 5.404329057729068 16.197841186382615 19.014521665233655 0 0 0
137 4 5.404329051527558 16.197841178291664 21.60347923371664 0 0 -1
138 2 7.9922244495231425 16.197841171124686 21.603225127528553 0 0 0
139 2 5.404329044362406 13.609945780289237 21.603225113195563 0 0 0
140 1 8.103638781916079 13.498531447839019 18.89934738750622 0 0 0
216 2 10.802462049489343 13.38884286196359 21.598016521813502 -1 0 0
141 2 5.404329052072293 21.599557380927855 2.8094840594526795 0 0 0
142 1 8.10457504423613 18.898087171030607 2.6966111667383355 0 0 0
221 2 10.79692102736951 21.59043315914666 2.581629746058323 -1 0 0
143 4 5.404329051317108 21.600502714582944 5.3983257467151535 0 -1 0
144 2 5.404329059491706 19.012135675942815 5.398615468261859 0 0 0
145 2 7.992342579754539 21.601114271532335 5.399790427862357 0 0 0
224 3 10.802209237776701 21.595721364856026 5.400824764665832 0 -1 0
146 2 5.404329065464619 18.78638568026835 10.798734428131992 0 0 0
147 2 5.4043290505478225 21.602440682294628 7.986306544758231 0 0 0
148 3 5.404329051479196 21.600917732393764 10.799188122092973 0 -1 0
149 1 8.105524043652068 18.89903617034972 8.099490302094296 0 0 0
150 2 8.21929038575576 21.60069151615293 10.799366457116916 0 0 0
151 2 5.4043290522926375 21.599678057245946 13.611855082538773 0 0 0
152 1 8.105571611561333 18.899083738397604 13.49924209487778 0 0 0
153 4 5.404329051520794 21.600737990328792 16.199857519300426 0 -1 0
154 2 5.404329067597362 19.01201015229786 16.200925947851374 0 0 0
155 2 7.992623279560827 21.600542461306315 16.199023584863536 0 0 0
156 2 5.404329058685097 18.785736576281288 21.60322512942232 0 0 0
157 2 5.4043290507305235 21.601325635817265 18.788041133639137 0 0 0
158 3 5.404329051549827 21.59870583095653 21.602653005061466 0 -1 -1
159 1 8.103638782066328 18.89715090876043 18.89934738759063 0 0 0
160 2 8.213327367870425 21.59597417628703 21.59801652482672 0 0 0
236 2 10.803687929212785 21.5972000516764 19.012033163032473 -1 0 0
237 2 10.802462035968114 19.006839494664856 21.59801652953361 -1 0 0
239 4 10.800213334020645 21.59372546082039 21.599265259297947 0 -1 -1
162 1 13.407507245979327 2.592080954647584 2.6994203521704594 -1 0 0
178 3 10.817896092772811 5.393371969118158 0.010608419745750552 0 0 0
180 2 13.639829993477939 5.393371979796686 0.21210338929036254 -1 0 1
163 2 13.411540867454196 5.393371974586216 5.2923563979499315 -1 0 0
164 2 10.816104965480786 2.8027822357865313 5.388860840932717 -1 0 0
165 4 10.819580563937263 5.393371968760215 5.387831251984231 0 0 0
225 2 13.618208527845878 0.0006786608200037847 5.388860835225408 -1 1 0
166 2 10.807014426768575 2.5808973769450083 10.798120955422418 -1 0 0
167 2 10.868245936612727 5.393371973333877 7.975625821809161 -1 0 0
168 3 10.809659070602947 5.3933719690482755 10.796892532615825 0 0 0
169 1 13.506063880269544 2.6906375880107722 8.095672791944882 -1 0 0
170 2 13.621837876391277 5.3933719835304705 10.802672748102907 -1 0 0
172 1 13.510497673713509 2.695071382652019 13.500570490002191 -1 0 0
173 2 13.399578234145288 5.39337198512484 16.190349197574974 -1 0 0
174 2 10.809388389207792 2.8048205684048697 16.208756266306413 -1 0 0
175 4 10.812392172287083 5.393371969016518 16.209776609203438 0 0 0
176 2 10.804641387628106 2.574120291031969 21.605372800263407 -1 0 0
177 2 10.846135853682911 5.393371972453908 18.801197605438798 -1 0 0
179 1 13.485802545911515 2.6703762514426392 18.895542416408524 -1 0 0
182 1 13.40750724524285 8.194662984199446 2.699420351981682 -1 0 0
183 2 10.816104951949313 7.9839617018582905 5.38886083212539 -1 0 0
185 2 13.618208527388683 10.786065264443982 5.388860837235538 -1 0 0
186 2 10.8079481815309 10.794222043354992 8.210741390453233 -1 0 0
187 2 10.80701439870939 8.205846561179172 10.79812096339762 -1 0 0
188 2 13.396323668523 10.795155802968694 10.79812095882976 -1 0 0
189 4 10.807636394301475 10.794533835366583 10.799301927530514 0 0 0
190 1 13.506063879161546 8.096106349472997 8.095672792138252 -1 0 0
191 2 10.808798595666385 10.793371638440133 13.387618255557975 -1 0 0
192 1 13.510497674107679 8.09167255615213 13.500570489759788 -1 0 0
193 2 10.809388357632267 7.98192336969134 16.208756259849352 -1 0 0
194 3 10.805383798252478 10.796786431582607 16.198804799557355 0 0 0
195 2 13.620246859959344 10.79278184065203 16.208756262764094 -1 0 0
200 1 13.485802542322926 8.116367684218407 18.895542415393212 -1 0 0
197 2 10.804641372260555 8.212623647231238 21.605372807165566 -1 0 0
198 2 13.38954658256833 10.797528842283787 21.605372802817623 -1 0 0
201 2 10.806045252404724 16.197841174476412 2.809484059408818 -1 0 0
202 1 13.508159745137537 13.50895398184992 2.6977012352791983 -1 0 0
203 2 13.396265919049334 16.19784118606334 5.394048775213987 -1 0 0
204 2 10.807602144641324 13.60982764993359 5.399790430957648 -1 0 0
205 4 10.806990587860957 16.197841178384678 5.39832574665984 0 0 0
206 2 10.807179389350583 13.382879844013718 10.799366453611245 -1 0 0
207 2 10.808928557421066 16.19784118249319 7.98630654470403 -1 0 0
208 3 10.807405605634756 16.19784117831002 10.799188122051332 0 0 0
209 1 13.509735178823341 13.493720740926369 8.097048211298635 -1 0 0
210 2 13.620936048542761 16.197841192258746 10.801625155745548 -1 0 0
211 2 10.806165928584447 16.197841174232703 13.611855082508978 -1 0 0
212 1 13.509142254525798 13.494512330642566 13.502051882461094 -1 0 0
213 2 13.395762601556552 16.19784119446575 16.19955198393198 -1 0 0
214 2 10.807030334493792 13.609546950345194 16.199023587987295 -1 0 0
215 4 10.807225863546115 16.19784117837822 16.199857519270548 0 0 0
220 2 13.620161343364709 16.197841184325835 21.606524580521867 -1 0 0
217 2 10.807813510906515 16.19784118235885 18.78804113361405 -1 0 0
218 3 10.805193704214892 16.197841178334375 21.602653005037382 0 0 -1
219 1 13.508210128505205 13.497644614864537 18.904696293649412 -1 0 0
222 1 13.508159745252842 18.886728375296332 2.6977012352644976 -1 0 0
223 2 10.807602128856551 18.785854706843104 5.399790422914021 -1 0 0
226 2 10.807948183038366 21.60146030471319 8.210741390611302 -1 0 0
227 2 10.807179361369085 19.012802512526413 10.799366462103476 -1 0 0
228 2 13.396323668560782 21.60052652555337 10.798120960179732 -1 0 0
229 4 10.807636394397496 21.601148521147856 10.79930192769898 0 -1 0
230 1 13.509735179680966 18.901961615862692 8.09704821110369 -1 0 0
231 2 10.808798594720121 21.6023107261377 13.387618255723025 -1 0 0
232 1 13.509142254316478 18.901170026257606 13.502051882622887 -1 0 0
233 2 10.807030302384362 18.78613540642325 16.199023579952513 -1 0 0
234 3 10.805383798351393 21.598895925177278 16.198804799808507 0 -1 0
235 2 13.62024686016704 21.602900484555953 16.208756263077195 -1 0 0
240 1 13.508210129193463 18.898037741610885 18.904696293602353 -1 0 0
238 2 13.389546582645565 21.598153499446564 21.60537280484843 -1 0 0
241 1 19.010089275872755 2.592080954581888 2.699420352152291 -1 0 0
256 4 16.208798261100732 5.393371969815715 0.015471874051659285 -1 0 0
317 3 16.20879826058801 0.0024698012735449026 0.010608419855447693 -1 0 0
257 2 18.777766528245895 5.393371959352062 0.21210339343775786 -1 0 1
18 3 21.59970042861013 5.393371968802422 0.010608419661522817 -1 0 0
258 2 16.208798250726254 2.8244037022935182 0.21210338807069817 -1 0 1
242 2 16.208798255418362 2.596114575988259 5.292356398862446 -1 0 0
243 3 16.208798260928702 5.393371969596958 5.408394005351043 -1 0 0
244 2 19.006055653826255 5.393371964002552 5.292356394661496 -1 0 0
3 4 21.59801595718903 5.3933719693074895 5.387831251707834 -1 0 0
5 2 21.601491568444214 2.802782236196882 5.388860838446661 -1 0 0
302 4 16.208798260923597 0.004154272418990246 5.38783125202689 -1 0 0
304 2 18.79938799389905 0.0006786735016959256 5.388860837851916 -1 1 0
245 2 16.208798262191728 5.393371971615588 8.198286088881707 -1 0 0
246 2 18.795758644876372 5.393371954696789 10.802672751617031 -1 0 0
247 2 16.20879824625106 2.806411584856823 10.802672747056945 -1 0 0
248 4 16.208798260624665 5.393371969080613 10.795470886657947 -1 0 0
249 1 18.911532641712252 2.690637588454091 8.095672792063475 -1 0 0
7 2 21.549350581494863 5.393371971374015 7.9756258215362905 -1 0 0
8 3 21.60793745072807 5.393371969041661 10.796892532381927 -1 0 0
306 2 16.208798259490724 0.052819644212487304 7.975625821873984 -1 1 0
250 2 16.208798258837152 5.393371966224248 13.384978289113574 -1 0 0
251 1 18.907098847173327 2.6950713821102896 13.500570489837973 -1 0 0
252 2 16.208798244938805 2.5841519426605397 16.19034919871 -1 0 0
253 3 16.20879826097684 5.393371969600345 16.215713389732056 -1 0 0
254 2 19.01801828741463 5.393371953357907 16.190349193879918 -1 0 0
13 4 21.60520434919569 5.393371969197643 16.209776609030683 -1 0 0
15 2 21.60820816383074 2.804820568555406 16.20875626623289 -1 0 0
255 2 16.208798262960688 5.393371972789057 19.063631670976203 -1 0 0
316 2 16.208798260378654 0.030709561231180516 18.801197605561928 -1 1 0
17 2 21.571460664604363 5.393371971956458 18.801197605230783 -1 0 0
259 1 18.93179397846221 2.670376253746863 18.895542415887025 -1 0 0
261 1 19.010089275584715 8.194662985289664 2.6994203519635103 -1 0 0
275 2 16.208798271170878 7.9623402366417695 0.21210339462492556 -1 0 1
277 3 16.208798260903745 10.784274137125637 0.010608419551875414 -1 0 0
262 2 16.208798266002027 8.190629362361284 5.292356393750266 -1 0 0
263 2 18.79938799349458 10.786065277315334 5.3888608353448095 -1 0 0
264 4 16.20879826037634 10.782589665669255 5.387831251676111 -1 0 0
23 2 21.601491556422655 7.983961702309581 5.388860834156456 -1 0 0
265 2 16.208798275084742 7.98033235333224 10.802672752662875 -1 0 0
266 2 16.208798261450642 10.733924289093993 7.975625821502914 -1 0 0
267 3 16.208798260643412 10.792511159225004 10.796892532327295 -1 0 0
268 1 18.91153264128799 8.096106350561932 8.095672792256847 -1 0 0
269 2 19.02127285277053 10.795155831043294 10.79812095944126 -1 0 0
270 2 16.20879826049835 10.80295559952129 13.619510995543147 -1 0 0
271 1 18.90709884775506 8.091672555717961 13.500570489595571 -1 0 0
31 2 21.608797926277887 10.793371637488796 13.387618255460803 -1 0 0
272 2 16.208798276705735 8.202591995934647 16.190349192745877 -1 0 0
273 2 18.797349661293417 10.792781872353764 16.208756263006673 -1 0 0
274 4 16.20879826061205 10.78977805770233 16.20977660893506 -1 0 0
33 2 21.608208132217865 7.981923369884007 16.208756259666966 -1 0 0
279 2 19.028049938866662 10.79752885727397 21.605372803795987 -1 0 0
276 2 16.208798260876158 10.756034372161846 18.80119760512568 -1 0 0
278 1 18.931793976372326 8.116367687592653 18.89554241487171 -1 0 0
280 2 16.208798255064334 16.19784117639664 2.585283518596448 -1 0 0
281 1 18.909436776483624 13.508953981526744 2.697701235002882 -1 0 0
260 2 16.20879825943847 10.879687737875681 2.807540578682437 -1 0 0
282 2 16.208798253514992 13.374942637959752 5.442001594664739 -1 0 0
283 3 16.208798260688543 16.197841177903037 5.402037894921578 -1 0 0
284 2 19.021330602288664 16.19784117015219 5.394048763188849 -1 0 0
285 2 16.208798267019223 16.197841181052958 8.213067353697554 -1 0 0
286 2 18.796660472804078 16.19784116443453 10.801625168360742 -1 0 0
287 2 16.20879824683434 13.607711436961825 10.791618914461134 -1 0 0
288 4 16.20879826068008 16.19784117839384 10.800465180068052 -1 0 0
289 1 18.907861341913403 13.493720740846312 8.097048211023957 -1 0 0
47 2 21.608667951594356 16.19784118103266 7.986306544680016 -1 0 0
290 2 16.208798254428846 16.197841175902433 13.389411177821753 -1 0 0
291 1 18.908454267154955 13.494512330536475 13.502051882333545 -1 0 0
292 2 16.208798244817626 13.378611824934728 16.2240191314302 -1 0 0
293 3 16.208798260716204 16.197841178119575 16.20472562469965 -1 0 0
294 2 19.02183391986055 16.197841162273992 16.199551971422753 -1 0 0
295 2 16.208798266774753 16.197841180550565 19.015334355737586 -1 0 0
296 4 16.20879826074893 16.19784117837057 21.603098833707694 -1 0 -1
297 2 18.79743517812991 16.197841172409134 21.60652459222709 -1 0 0
298 2 16.208798254300866 13.610280660994356 21.591029451946977 -1 0 0
299 1 18.909386392490816 13.497644615331373 18.9046962933909 -1 0 0
300 2 16.20879826238896 21.51599462354986 2.807540578797655 -1 0 0
301 1 18.909436775909143 18.886728374785108 2.6977012354117047 -1 0 0
303 2 16.20879826767784 19.020739718421957 5.442001590193942 -1 0 0
305 2 16.208798274491677 18.787970919847425 10.79161891950517 -1 0 0
309 2 19.02127285278518 21.600526553615673 10.798120958769038 -1 0 0
307 3 16.2087982606368 21.603171197500608 10.796892532670102 -1 -1 0
308 1 18.90786134220546 18.90196161567455 8.09704821128596 -1 0 0
310 2 16.208798261111546 21.592726762495175 13.619510995854556 -1 0 0
311 1 18.908454266659334 18.901170026163847 13.502051882615216 -1 0 0
71 2 21.608797925418905 21.602310725283914 13.38761825562584 -1 0 0
312 4 16.20879826079321 21.605904299195554 16.209776609289957 -1 -1 0
313 2 16.208798276526043 19.017070531853633 16.224019126906853 -1 0 0
314 2 18.7973496614289 21.602900516042617 16.20875626321102 -1 0 0
315 2 16.208798267105223 18.785401695795755 21.591029456303538 -1 0 0
319 2 19.028049938849453 21.59815351395439 21.605372803216497 -1 0 0
318 1 18.90938639269268 18.898037741906183 18.904696293712636 -1 0 0

Velocities

1 0.0 0.0 0.0
2 0.0 0.0 0.0
4 0.0 0.0 0.0
6 0.0 0.0 0.0
10 0.0 0.0 0.0
9 0.0 0.0 0.0
11 0.0 0.0 0.0
12 0.0 0.0 0.0
14 0.0 0.0 0.0
16 0.0 0.0 0.0
20 0.0 0.0 0.0
19 0.0 0.0 0.0
22 0.0 0.0 0.0
25 0.0 0.0 0.0
24 0.0 0.0 0.0
26 0.0 0.0 0.0
27 0.0 0.0 0.0
28 0.0 0.0 0.0
29 0.0 0.0 0.0
30 0.0 0.0 0.0
32 0.0 0.0 0.0
35 0.0 0.0 0.0
34 0.0 0.0 0.0
36 0.0 0.0 0.0
37 0.0 0.0 0.0
38 0.0 0.0 0.0
39 0.0 0.0 0.0
40 0.0 0.0 0.0
41 0.0 0.0 0.0
42 0.0 0.0 0.0
21 0.0 0.0 0.0
43 0.0 0.0 0.0
44 0.0 0.0 0.0
45 0.0 0.0 0.0
46 0.0 0.0 0.0
50 0.0 0.0 0.0
48 0.0 0.0 0.0
49 0.0 0.0 0.0
51 0.0 0.0 0.0
52 0.0 0.0 0.0
53 0.0 0.0 0.0
54 0.0 0.0 0.0
55 0.0 0.0 0.0
56 0.0 0.0 0.0
57 0.0 0.0 0.0
58 0.0 0.0 0.0
59 0.0 0.0 0.0
60 0.0 0.0 0.0
61 0.0 0.0 0.0
62 0.0 0.0 0.0
63 0.0 0.0 0.0
64 0.0 0.0 0.0
65 0.0 0.0 0.0
66 0.0 0.0 0.0
67 0.0 0.0 0.0
68 0.0 0.0 0.0
69 0.0 0.0 0.0
70 0.0 0.0 0.0
72 0.0 0.0 0.0
73 0.0 0.0 0.0
74 0.0 0.0 0.0
75 0.0 0.0 0.0
76 0.0 0.0 0.0
77 0.0 0.0 0.0
78 0.0 0.0 0.0
79 0.0 0.0 0.0
80 0.0 0.0 0.0
81 0.0 0.0 0.0
82 0.0 0.0 0.0
161 0.0 0.0 0.0
83 0.0 0.0 0.0
84 0.0 0.0 0.0
85 0.0 0.0 0.0
86 0.0 0.0 0.0
87 0.0 0.0 0.0
88 0.0 0.0 0.0
89 0.0 0.0 0.0
90 0.0 0.0 0.0
91 0.0 0.0 0.0
92 0.0 0.0 0.0
171 0.0 0.0 0.0
93 0.0 0.0 0.0
94 0.0 0.0 0.0
95 0.0 0.0 0.0
96 0.0 0.0 0.0
97 0.0 0.0 0.0
98 0.0 0.0 0.0
99 0.0 0.0 0.0
100 0.0 0.0 0.0
101 0.0 0.0 0.0
102 0.0 0.0 0.0
103 0.0 0.0 0.0
104 0.0 0.0 0.0
105 0.0 0.0 0.0
184 0.0 0.0 0.0
106 0.0 0.0 0.0
107 0.0 0.0 0.0
108 0.0 0.0 0.0
109 0.0 0.0 0.0
110 0.0 0.0 0.0
111 0.0 0.0 0.0
112 0.0 0.0 0.0
113 0.0 0.0 0.0
114 0.0 0.0 0.0
115 0.0 0.0 0.0
116 0.0 0.0 0.0
117 0.0 0.0 0.0
118 0.0 0.0 0.0
119 0.0 0.0 0.0
120 0.0 0.0 0.0
196 0.0 0.0 0.0
199 0.0 0.0 0.0
121 0.0 0.0 0.0
122 0.0 0.0 0.0
181 0.0 0.0 0.0
123 0.0 0.0 0.0
124 0.0 0.0 0.0
125 0.0 0.0 0.0
126 0.0 0.0 0.0
127 0.0 0.0 0.0
128 0.0 0.0 0.0
129 0.0 0.0 0.0
130 0.0 0.0 0.0
131 0.0 0.0 0.0
132 0.0 0.0 0.0
133 0.0 0.0 0.0
134 0.0 0.0 0.0
135 0.0 0.0 0.0
136 0.0 0.0 0.0
137 0.0 0.0 0.0
138 0.0 0.0 0.0
139 0.0 0.0 0.0
140 0.0 0.0 0.0
216 0.0 0.0 0.0
141 0.0 0.0 0.0
142 0.0 0.0 0.0
221 0.0 0.0 0.0
143 0.0 0.0 0.0
144 0.0 0.0 0.0
145 0.0 0.0 0.0
224 0.0 0.0 0.0
146 0.0 0.0 0.0
147 0.0 0.0 0.0
148 0.0 0.0 0.0
149 0.0 0.0 0.0
150 0.0 0.0 0.0
151 0.0 0.0 0.0
152 0.0 0.0 0.0
153 0.0 0.0 0.0
154 0.0 0.0 0.0
155 0.0 0.0 0.0
156 0.0 0.0 0.0
157 0.0 0.0 0.0
158 0.0 0.0 0.0
159 0.0 0.0 0.0
160 0.0 0.0 0.0
236 0.0 0.0 0.0
237 0.0 0.0 0.0
239 0.0 0.0 0.0
162 0.0 0.0 0.0
178 0.0 0.0 0.0
180 0.0 0.0 0.0
163 0.0 0.0 0.0
164 0.0 0.0 0.0
165 0.0 0.0 0.0
225 0.0 0.0 0.0
166 0.0 0.0 0.0
167 0.0 0.0 0.0
168 0.0 0.0 0.0
169 0.0 0.0 0.0
170 0.0 0.0 0.0
172 0.0 0.0 0.0
173 0.0 0.0 0.0
174 0.0 0.0 0.0
175 0.0 0.0 0.0
176 0.0 0.0 0.0
177 0.0 0.0 0.0
179 0.0 0.0 0.0
182 0.0 0.0 0.0
183 0.0 0.0 0.0
185 0.0 0.0 0.0
186 0.0 0.0 0.0
187 0.0 0.0 0.0
188 0.0 0.0 0.0
189 0.0 0.0 0.0
190 0.0 0.0 0.0
191 0.0 0.0 0.0
192 0.0 0.0 0.0
193 0.0 0.0 0.0
194 0.0 0.0 0.0
195 0.0 0.0 0.0
200 0.0 0.0 0.0
197 0.0 0.0 0.0
198 0.0 0.0 0.0
201 0.0 0.0 0.0
202 0.0 0.0 0.0
203 0.0 0.0 0.0
204 0.0 0.0 0.0
205 0.0 0.0 0.0
206 0.0 0.0 0.0
207 0.0 0.0 0.0
208 0.0 0.0 0.0
209 0.0 0.0 0.0
210 0.0 0.0 0.0
211 0.0 0.0 0.0
212 0.0 0.0 0.0
213 0.0 0.0 0.0
214 0.0 0.0 0.0
215 0.0 0.0 0.0
220 0.0 0.0 0.0
217 0.0 0.0 0.0
218 0.0 0.0 0.0
219 0.0 0.0 0.0
222 0.0 0.0 0.0
223 0.0 0.0 0.0
226 0.0 0.0 0.0
227 0.0 0.0 0.0
228 0.0 0.0 0.0
229 0.0 0.0 0.0
230 0.0 0.0 0.0
231 0.0 0.0 0.0
232 0.0 0.0 0.0
233 0.0 0.0 0.0
234 0.0 0.0 0.0
235 0.0 0.0 0.0
240 0.0 0.0 0.0
238 0.0 0.0 0.0
241 0.0 0.0 0.0
256 0.0 0.0 0.0
317 0.0 0.0 0.0
257 0.0 0.0 0.0
18 0.0 0.0 0.0
258 0.0 0.0 0.0
242 0.0 0.0 0.0
243 0.0 0.0 0.0
244 0.0 0.0 0.0
3 0.0 0.0 0.0
5 0.0 0.0 0.0
302 0.0 0.0 0.0
304 0.0 0.0 0.0
245 0.0 0.0 0.0
246 0.0 0.0 0.0
247 0.0 0.0 0.0
248 0.0 0.0 0.0
249 0.0 0.0 0.0
7 0.0 0.0 0.0
8 0.0 0.0 0.0
306 0.0 0.0 0.0
250 0.0 0.0 0.0
251 0.0 0.0 0.0
252 0.0 0.0 0.0
253 0.0 0.0 0.0
254 0.0 0.0 0.0
13 0.0 0.0 0.0
15 0.0 0.0 0.0
255 0.0 0.0 0.0
316 0.0 0.0 0.0
17 0.0 0.0 0.0
259 0.0 0.0 0.0
261 0.0 0.0 0.0
275 0.0 0.0 0.0
277 0.0 0.0 0.0
262 0.0 0.0 0.0
263 0.0 0.0 0.0
264 0.0 0.0 0.0
23 0.0 0.0 0.0
265 0.0 0.0 0.0
266 0.0 0.0 0.0
267 0.0 0.0 0.0
268 0.0 0.0 0.0
269 0.0 0.0 0.0
270 0.0 0.0 0.0
271 0.0 0.0 0.0
31 0.0 0.0 0.0
272 0.0 0.0 0.0
273 0.0 0.0 0.0
274 0.0 0.0 0.0
33 0.0 0.0 0.0
279 0.0 0.0 0.0
276 0.0 0.0 0.0
278 0.0 0.0 0.0
280 0.0 0.0 0.0
281 0.0 0.0 0.0
260 0.0 0.0 0.0
282 0.0 0.0 0.0
283 0.0 0.0 0.0
284 0.0 0.0 0.0
285 0.0 0.0 0.0
286 0.0 0.0 0.0
287 0.0 0.0 0.0
288 0.0 0.0 0.0
289 0.0 0.0 0.0
47 0.0 0.0 0.0
290 0.0 0.0 0.0
291 0.0 0.0 0.0
292 0.0 0.0 0.0
293 0.0 0.0 0.0
294 0.0 0.0 0.0
295 0.0 0.0 0.0
296 0.0 0.0 0.0
297 0.0 0.0 0.0
298 0.0 0.0 0.0
299 0.0 0.0 0.0
300 0.0 0.0 0.0
301 0.0 0.0 0.0
303 0.0 0.0 0.0
305 0.0 0.0 0.0
309 0.0 0.0 0.0
307 0.0 0.0 0.0
308 0.0 0.0 0.0
310 0.0 0.0 0.0
311 0.0 0.0 0.0
71 0.0 0.0 0.0
312 0.0 0.0 0.0
313 0.0 0.0 0.0
314 0.0 0.0 0.0
315 0.0 0.0 0.0
319 0.0 0.0 0.0
318 0.0 0.0 0.0
