LAMMPS data file via write_data, version 29 Oct 2020, timestep = 0

270 atoms
4 atom types

0.0 22.919740390541115 xlo xhi
0.0 19.849077405108556 ylo yhi
0.0 18.713889654014036 zlo zhi
11.45987015814027 11.459870148338457 6.616359074252635 xy xz yz

Masses

1 132.9054519
2 35.45
3 22.98976928
4 173.054

Atoms # atomic

8 2 5.650226186790963 3.2621601123101485 4.743555100958362 0 0 0
2 1 3.8199567712581772 2.2054530534208205 1.5594908035246056 0 0 0
4 2 5.650225959710758 5.5596529885903845 1.494409080467422 0 0 0
7 2 7.639914402531867 6.708399248755309 4.743554394516179 0 0 0
9 3 7.639913449503115 4.410906079893184 3.118981609002635 0 0 0
3 2 7.639912496474367 2.1134129110310527 1.4944088234890893 0 0 0
5 2 9.629600939295461 3.26215917119598 4.743554137537854 0 0 0
1 1 11.459870127748044 6.616359106365543 4.678472414480665 0 0 0
6 2 9.629600712215264 5.5596520474762245 1.4944081170468952 0 0 0
10 4 34.379610548681164 19.849077405108197 3.0283372129185555e-13 -1 -1 0
98 2 9.470182902903787 5.4676131370610275 10.98151831896304 0 0 0
92 1 7.639913487370998 4.410906078171699 7.797454021529284 0 0 0
94 2 9.470182675823576 7.7651060133412635 7.732372298472102 0 0 0
97 2 11.459871118644683 8.913852273506187 10.981517612520857 0 0 0
99 3 11.45987016561594 6.616359104644063 9.356944827007315 0 0 0
93 2 11.45986921258719 4.318865935781931 7.732372041493768 0 0 0
95 2 13.449557655408283 5.4676121959468595 10.981517355542532 0 0 0
91 1 15.279826843860864 8.821812131116424 10.916435632485344 0 0 0
96 2 13.449557428328085 7.765105072227101 7.732371335051575 0 0 0
100 4 38.19956726479399 22.05453042985907 6.237963218004982 -1 -1 0
188 2 13.290139619016603 7.673066161811905 17.21948153696772 0 0 0
182 1 11.459870203483824 6.616359102922578 14.035417239533963 0 0 0
184 2 13.290139391936394 9.97055903809214 13.970335516476782 0 0 0
187 2 15.279827834757508 11.119305298257066 17.219480830525537 0 0 0
189 3 15.279826881728752 8.821812129394939 15.594908045011993 0 0 0
183 2 15.279825928700006 6.52431896053281 13.970335259498448 0 0 0
185 2 17.2695143715211 7.673065220697737 17.219480573547212 0 0 0
181 1 19.09978355997368 11.027265155867301 17.154398850490022 0 0 0
186 2 17.269514144440905 9.970558096977982 13.970334553056253 0 0 0
190 4 42.01952398090681 24.25998345460996 12.47592643600966 -1 -1 0
38 2 9.470182906171054 9.878519247346333 4.743555100958362 0 0 0
32 1 7.639913490638267 8.821812188457002 1.5594908035246056 0 0 0
34 2 9.470182679090847 12.17601212362657 1.494409080467422 0 0 0
37 2 11.459871121911958 13.324758383791494 4.743554394516179 0 0 0
39 3 11.459870168883207 11.027265214929365 3.118981609002635 0 0 0
33 2 11.459869215854457 8.729772046067238 1.4944088234890893 0 0 0
35 2 13.44955765867555 9.878518306232166 4.743554137537854 0 0 0
31 1 15.279826847128135 13.23271824140173 4.678472414480665 0 0 0
36 2 13.44955743159535 12.176011182512406 1.4944081170468952 0 0 0
40 4 26.739697109920993 6.6163591350358315 3.0283372129185555e-13 -1 0 0
128 2 13.290139622283876 12.083972272097213 10.98151831896304 0 0 0
122 1 11.459870206751086 11.027265213207885 7.797454021529284 0 0 0
124 2 13.290139395203663 14.38146514837745 7.732372298472102 0 0 0
127 2 15.279827838024772 15.530211408542371 10.981517612520857 0 0 0
129 3 15.27982688499603 13.232718239680246 9.356944827007315 0 0 0
123 2 15.279825931967277 10.935225070818117 7.732372041493768 0 0 0
125 2 17.269514374788375 12.083971330983045 10.981517355542532 0 0 0
121 1 19.099783563240955 15.43817126615261 10.916435632485344 0 0 0
126 2 17.269514147708172 14.381464207263287 7.732371335051575 0 0 0
130 4 30.559653826033816 8.82181215978671 6.237963218004982 -1 0 0
218 2 17.110096338396694 14.289425296848087 17.21948153696772 0 0 0
212 1 15.279826922863906 13.232718237958764 14.035417239533963 0 0 0
214 2 17.110096111316487 16.58691817312833 13.970335516476782 0 0 0
217 2 19.099784554137592 17.735664433293252 17.219480830525537 0 0 0
219 3 19.099783601108843 15.438171264431126 15.594908045011993 0 0 0
213 2 19.099782648080094 13.140678095568994 13.970335259498448 0 0 0
215 2 21.08947109090119 14.289424355733924 17.219480573547212 0 0 0
211 1 22.919740279353775 17.64362429090349 17.154398850490022 0 0 0
216 2 21.089470863820992 16.586917232014166 13.970334553056253 0 0 0
220 4 34.37961054214664 11.027265184537585 12.47592643600966 -1 0 0
68 2 13.290139625551143 16.49487838238252 4.743555100958362 0 0 0
62 1 11.459870210018357 15.43817132349319 1.5594908035246056 0 0 0
64 2 13.290139398470936 18.792371258662747 1.494409080467422 0 0 0
67 2 15.279827841292047 19.94111751882767 4.743554394516179 0 0 0
69 3 15.2798268882633 17.643624349965556 3.118981609002635 0 0 0
63 2 15.279825935234548 15.346131181103424 1.4944088234890893 0 0 0
65 2 17.26951437805564 16.49487744126835 4.743554137537854 0 0 0
61 1 19.09978356650822 19.849077376437915 4.678472414480665 0 0 0
66 2 17.26951415097544 18.792370317548595 1.4944081170468952 0 0 0
70 4 30.559653829301077 13.232718270072011 3.0283372129185555e-13 -1 0 0
158 2 17.11009634166396 18.700331407133397 10.98151831896304 0 0 0
152 1 15.279826926131175 17.643624348244067 7.797454021529284 0 0 0
154 2 17.110096114583758 20.99782428341363 7.732372298472102 0 0 0
157 2 19.099784557404863 22.146570543578555 10.981517612520857 0 0 0
159 3 19.099783604376114 19.849077374716433 9.356944827007315 0 0 0
153 2 19.09978265134737 17.5515842058543 7.732372041493768 0 0 0
155 2 21.08947109416846 18.700330466019228 10.981517355542532 0 0 0
151 1 22.919740282621046 22.054530401188792 10.916435632485344 0 0 0
156 2 21.089470867088263 20.997823342299473 7.732371335051575 0 0 0
160 4 34.3796105454139 15.438171294822896 6.237963218004982 -1 0 0
248 2 20.93005305777678 20.90578443188428 17.21948153696772 0 0 0
242 1 19.099783642244 19.849077372994945 14.035417239533963 0 0 0
244 2 20.930052830696578 23.203277308164513 13.970335516476782 0 0 0
247 2 22.919741273517687 24.352023568329432 17.219480830525537 0 0 0
249 3 22.919740320488934 22.054530399467314 15.594908045011993 0 0 0
243 2 22.919739367460185 19.75703723060518 13.970335259498448 0 0 0
245 2 24.909427810281276 20.9057834907701 17.219480573547212 0 0 0
241 1 26.739696998733862 24.259983425939666 17.154398850490022 0 0 0
246 2 24.909427583201083 23.20327636705035 13.970334553056253 0 0 0
250 4 38.19956726152672 17.643624319573775 12.47592643600966 -1 0 0
18 2 13.290139650304667 3.2621601123101485 4.743555100958362 0 0 0
12 1 11.459870234771884 2.2054530534208205 1.5594908035246056 0 0 0
14 2 13.290139423224465 5.5596529885903845 1.494409080467422 0 0 0
17 2 15.279827866045569 6.708399248755309 4.743554394516179 0 0 0
19 3 15.279826913016823 4.410906079893184 3.118981609002635 0 0 0
13 2 15.279825959988077 2.1134129110310527 1.4944088234890893 0 0 0
15 2 17.269514402809165 3.26215917119598 4.743554137537854 0 0 0
11 1 19.099783591261748 6.616359106365543 4.678472414480665 0 0 0
16 2 17.269514175728972 5.5596520474762245 1.4944081170468952 0 0 0
20 4 19.099783621653764 19.849077405108197 3.0283372129185555e-13 0 -1 0
108 2 17.110096366417487 5.4676131370610275 10.98151831896304 0 0 0
102 1 15.2798269508847 4.410906078171699 7.797454021529284 0 0 0
104 2 17.110096139337283 7.7651060133412635 7.732372298472102 0 0 0
107 2 19.09978458215839 8.913852273506187 10.981517612520857 0 0 0
109 3 19.099783629129647 6.616359104644063 9.356944827007315 0 0 0
103 2 19.099782676100894 4.318865935781931 7.732372041493768 0 0 0
105 2 21.089471118921985 5.4676121959468595 10.981517355542532 0 0 0
101 1 22.91974030737457 8.821812131116424 10.916435632485344 0 0 0
106 2 21.08947089184179 7.765105072227101 7.732371335051575 0 0 0
110 4 22.919740337766584 22.05453042985907 6.237963218004982 0 -1 0
198 2 20.930053082530307 7.673066161811905 17.21948153696772 0 0 0
192 1 19.099783666997528 6.616359102922578 14.035417239533963 0 0 0
194 2 20.9300528554501 9.97055903809214 13.970335516476782 0 0 0
197 2 22.919741298271205 11.119305298257066 17.219480830525537 0 0 0
199 3 22.919740345242452 8.821812129394939 15.594908045011993 0 0 0
193 2 22.91973939221371 6.52431896053281 13.970335259498448 0 0 0
195 2 24.90942783503481 7.673065220697737 17.219480573547212 0 0 0
191 1 26.739697023487388 11.027265155867301 17.154398850490022 0 0 0
196 2 24.909427607954605 9.970558096977982 13.970334553056253 0 0 0
200 4 26.739697053879404 24.25998345460996 12.47592643600966 0 -1 0
48 2 17.110096369684754 9.878519247346333 4.743555100958362 0 0 0
42 1 15.27982695415197 8.821812188457002 1.5594908035246056 0 0 0
44 2 17.11009614260455 12.17601212362657 1.494409080467422 0 0 0
47 2 19.099784585425652 13.324758383791494 4.743554394516179 0 0 0
49 3 19.09978363239691 11.027265214929365 3.118981609002635 0 0 0
43 2 19.099782679368165 8.729772046067238 1.4944088234890893 0 0 0
45 2 21.08947112218926 9.878518306232166 4.743554137537854 0 0 0
41 1 22.91974031064184 13.23271824140173 4.678472414480665 0 0 0
46 2 21.08947089510906 12.176011182512406 1.4944081170468952 0 0 0
50 4 11.459870182893585 6.6163591350358315 3.0283372129185555e-13 0 0 0
138 2 20.930053085797585 12.083972272097213 10.98151831896304 0 0 0
132 1 19.09978367026479 11.027265213207885 7.797454021529284 0 0 0
134 2 20.930052858717378 14.38146514837745 7.732372298472102 0 0 0
137 2 22.919741301538476 15.530211408542371 10.981517612520857 0 0 0
139 3 22.919740348509734 13.232718239680246 9.356944827007315 0 0 0
133 2 22.91973939548099 10.935225070818117 7.732372041493768 0 0 0
135 2 24.909427838302083 12.083971330983045 10.981517355542532 0 0 0
131 1 26.73969702675466 15.43817126615261 10.916435632485344 0 0 0
136 2 24.90942761122188 14.381464207263287 7.732371335051575 0 0 0
140 4 15.279826899006403 8.82181215978671 6.237963218004982 0 0 0
228 2 24.7500098019104 14.289425296848087 17.21948153696772 0 0 0
222 1 22.91974038637761 13.232718237958764 14.035417239533963 0 0 0
224 2 24.750009574830194 16.58691817312833 13.970335516476782 0 0 0
227 2 26.739698017651296 17.735664433293252 17.219480830525537 0 0 0
229 3 26.739697064622554 15.438171264431126 15.594908045011993 0 0 0
223 2 26.7396961115938 13.140678095568994 13.970335259498448 0 0 0
225 2 28.729384554414892 14.289424355733924 17.219480573547212 0 0 0
221 1 30.559653742867475 17.64362429090349 17.154398850490022 0 0 0
226 2 28.7293843273347 16.586917232014166 13.970334553056253 0 0 0
230 4 19.09978361511922 11.027265184537585 12.47592643600966 0 0 0
78 2 20.93005308906485 16.49487838238252 4.743555100958362 0 0 0
72 1 19.09978367353206 15.43817132349319 1.5594908035246056 0 0 0
74 2 20.930052861984638 18.792371258662747 1.494409080467422 0 0 0
77 2 22.91974130480574 19.94111751882767 4.743554394516179 0 0 0
79 3 22.919740351777 17.643624349965556 3.118981609002635 0 0 0
73 2 22.919739398748256 15.346131181103424 1.4944088234890893 0 0 0
75 2 24.909427841569347 16.49487744126835 4.743554137537854 0 0 0
71 1 26.73969703002193 19.849077376437915 4.678472414480665 0 0 0
76 2 24.909427614489147 18.792370317548595 1.4944081170468952 0 0 0
80 4 15.279826902273673 13.232718270072011 3.0283372129185555e-13 0 0 0
168 2 24.75000980517767 18.700331407133397 10.98151831896304 0 0 0
162 1 22.919740389644886 17.643624348244067 7.797454021529284 0 0 0
164 2 24.75000957809746 20.99782428341363 7.732372298472102 0 0 0
167 2 26.73969802091857 22.146570543578555 10.981517612520857 0 0 0
169 3 26.73969706788983 19.849077374716433 9.356944827007315 0 0 0
163 2 26.739696114861076 17.5515842058543 7.732372041493768 0 0 0
165 2 28.72938455768217 18.700330466019228 10.981517355542532 0 0 0
161 1 30.559653746134753 22.054530401188792 10.916435632485344 0 0 0
166 2 28.729384330601967 20.997823342299473 7.732371335051575 0 0 0
170 4 19.099783618386496 15.438171294822896 6.237963218004982 0 0 0
258 2 28.56996652129049 20.90578443188428 17.21948153696772 0 0 0
252 1 26.7396971057577 19.849077372994945 14.035417239533963 0 0 0
254 2 28.569966294210275 23.203277308164513 13.970335516476782 0 0 0
257 2 30.55965473703139 24.352023568329432 17.219480830525537 0 0 0
259 3 30.559653784002638 22.054530399467314 15.594908045011993 0 0 0
253 2 30.55965283097389 19.75703723060518 13.970335259498448 0 0 0
255 2 32.54934127379498 20.9057834907701 17.219480573547212 0 0 0
251 1 34.37961046224757 24.259983425939666 17.154398850490022 0 0 0
256 2 32.54934104671479 23.20327636705035 13.970334553056253 0 0 0
260 4 22.91974033449931 17.643624319573775 12.47592643600966 0 0 0
28 2 20.930053113818374 3.2621601123101485 4.743555100958362 0 0 0
22 1 19.099783698285584 2.2054530534208205 1.5594908035246056 0 0 0
24 2 20.93005288673817 5.5596529885903845 1.494409080467422 0 0 0
27 2 22.919741329559265 6.708399248755309 4.743554394516179 0 0 0
29 3 22.91974037653053 4.410906079893184 3.118981609002635 0 0 0
23 2 22.91973942350178 2.1134129110310527 1.4944088234890893 0 0 0
25 2 24.909427866322872 3.26215917119598 4.743554137537854 0 0 0
21 1 26.73969705477546 6.616359106365543 4.678472414480665 0 0 0
26 2 24.909427639242672 5.5596520474762245 1.4944081170468952 0 0 0
30 4 26.739697085167464 19.849077405108197 3.0283372129185555e-13 0 -1 0
118 2 24.750009829931194 5.4676131370610275 10.98151831896304 0 0 0
112 1 22.919740414398404 4.410906078171699 7.797454021529284 0 0 0
114 2 24.75000960285099 7.7651060133412635 7.732372298472102 0 0 0
117 2 26.739698045672096 8.913852273506187 10.981517612520857 0 0 0
119 3 26.739697092643354 6.616359104644063 9.356944827007315 0 0 0
113 2 26.7396961396146 4.318865935781931 7.732372041493768 0 0 0
115 2 28.729384582435692 5.4676121959468595 10.981517355542532 0 0 0
111 1 30.55965377088828 8.821812131116424 10.916435632485344 0 0 0
116 2 28.729384355355492 7.765105072227101 7.732371335051575 0 0 0
120 4 30.55965380128029 22.05453042985907 6.237963218004982 0 -1 0
208 2 28.569966546044014 7.673066161811905 17.21948153696772 0 0 0
202 1 26.739697130511225 6.616359102922578 14.035417239533963 0 0 0
204 2 28.5699663189638 9.97055903809214 13.970335516476782 0 0 0
207 2 30.55965476178492 11.119305298257066 17.219480830525537 0 0 0
209 3 30.55965380875616 8.821812129394939 15.594908045011993 0 0 0
203 2 30.559652855727414 6.52431896053281 13.970335259498448 0 0 0
205 2 32.54934129854851 7.673065220697737 17.219480573547212 0 0 0
201 1 34.379610487001095 11.027265155867301 17.154398850490022 0 0 0
206 2 32.54934107146831 9.970558096977982 13.970334553056253 0 0 0
210 4 34.37961051739311 24.25998345460996 12.47592643600966 0 -1 0
58 2 24.75000983319846 9.878519247346333 4.743555100958362 0 0 0
52 1 22.91974041766568 8.821812188457002 1.5594908035246056 0 0 0
54 2 24.750009606118258 12.17601212362657 1.494409080467422 0 0 0
57 2 26.739698048939363 13.324758383791494 4.743554394516179 0 0 0
59 3 26.739697095910618 11.027265214929365 3.118981609002635 0 0 0
53 2 26.73969614288187 8.729772046067238 1.4944088234890893 0 0 0
55 2 28.72938458570296 9.878518306232166 4.743554137537854 0 0 0
51 1 30.559653774155546 13.23271824140173 4.678472414480665 0 0 0
56 2 28.72938435862276 12.176011182512406 1.4944081170468952 0 0 0
60 4 19.09978364640729 6.6163591350358315 3.0283372129185555e-13 0 0 0
148 2 28.56996654931128 12.083972272097213 10.98151831896304 0 0 0
142 1 26.7396971337785 11.027265213207885 7.797454021529284 0 0 0
144 2 28.56996632223107 14.38146514837745 7.732372298472102 0 0 0
147 2 30.559654765052183 15.530211408542371 10.981517612520857 0 0 0
149 3 30.55965381202345 13.232718239680246 9.356944827007315 0 0 0
143 2 30.559652858994692 10.935225070818117 7.732372041493768 0 0 0
145 2 32.54934130181579 12.083971330983045 10.981517355542532 0 0 0
141 1 34.37961049026836 15.43817126615261 10.916435632485344 0 0 0
146 2 32.549341074735594 14.381464207263287 7.732371335051575 0 0 0
150 4 22.91974036252011 8.82181215978671 6.237963218004982 0 0 0
238 2 32.3899232654241 14.289425296848087 17.21948153696772 0 0 0
232 1 30.559653849891316 13.232718237958764 14.035417239533963 0 0 0
234 2 32.38992303834391 16.58691817312833 13.970335516476782 0 0 0
237 2 34.379611481165 17.735664433293252 17.219480830525537 0 0 0
239 3 34.379610528136254 15.438171264431126 15.594908045011993 0 0 0
233 2 34.37960957510751 13.140678095568994 13.970335259498448 0 0 0
235 2 36.3692980179286 14.289424355733924 17.219480573547212 0 0 0
231 1 38.19956720638118 17.64362429090349 17.154398850490022 0 0 0
236 2 36.36929779084841 16.586917232014166 13.970334553056253 0 0 0
240 4 26.739697078632922 11.027265184537585 12.47592643600966 0 0 0
88 2 28.569966552578556 16.49487838238252 4.743555100958362 0 0 0
82 1 26.739697137045766 15.43817132349319 1.5594908035246056 0 0 0
84 2 28.56996632549835 18.792371258662747 1.494409080467422 0 0 0
87 2 30.55965476831945 19.94111751882767 4.743554394516179 0 0 0
89 3 30.55965381529071 17.643624349965556 3.118981609002635 0 0 0
83 2 30.559652862261956 15.346131181103424 1.4944088234890893 0 0 0
85 2 32.549341305083054 16.49487744126835 4.743554137537854 0 0 0
81 1 34.37961049353564 19.849077376437915 4.678472414480665 0 0 0
86 2 32.549341078002854 18.792370317548595 1.4944081170468952 0 0 0
90 4 22.919740365787373 13.232718270072011 3.0283372129185555e-13 0 0 0
178 2 32.389923268691376 18.700331407133397 10.98151831896304 0 0 0
172 1 30.559653853158586 17.643624348244067 7.797454021529284 0 0 0
174 2 32.38992304161117 20.99782428341363 7.732372298472102 0 0 0
177 2 34.37961148443226 22.146570543578555 10.981517612520857 0 0 0
179 3 34.37961053140353 19.849077374716433 9.356944827007315 0 0 0
173 2 34.379609578374776 17.5515842058543 7.732372041493768 0 0 0
175 2 36.36929802119588 18.700330466019228 10.981517355542532 0 0 0
171 1 38.19956720964845 22.054530401188792 10.916435632485344 0 0 0
176 2 36.369297794115674 20.997823342299473 7.732371335051575 0 0 0
180 4 26.739697081900196 15.438171294822896 6.237963218004982 0 0 0
268 2 36.209879984804196 20.90578443188428 17.21948153696772 0 0 0
262 1 34.37961056927141 19.849077372994945 14.035417239533963 0 0 0
264 2 36.20987975772399 23.203277308164513 13.970335516476782 0 0 0
267 2 38.1995682005451 24.352023568329432 17.219480830525537 0 0 0
269 3 38.19956724751634 22.054530399467314 15.594908045011993 0 0 0
263 2 38.199566294487596 19.75703723060518 13.970335259498448 0 0 0
265 2 40.18925473730869 20.9057834907701 17.219480573547212 0 0 0
261 1 42.01952392576128 24.259983425939666 17.154398850490022 0 0 0
266 2 40.189254510228494 23.20327636705035 13.970334553056253 0 0 0
270 4 30.559653798013017 17.643624319573775 12.47592643600966 0 0 0

Velocities

8 0.0 0.0 0.0
2 0.0 0.0 0.0
4 0.0 0.0 0.0
7 0.0 0.0 0.0
9 0.0 0.0 0.0
3 0.0 0.0 0.0
5 0.0 0.0 0.0
1 0.0 0.0 0.0
6 0.0 0.0 0.0
10 0.0 0.0 0.0
98 0.0 0.0 0.0
92 0.0 0.0 0.0
94 0.0 0.0 0.0
97 0.0 0.0 0.0
99 0.0 0.0 0.0
93 0.0 0.0 0.0
95 0.0 0.0 0.0
91 0.0 0.0 0.0
96 0.0 0.0 0.0
100 0.0 0.0 0.0
188 0.0 0.0 0.0
182 0.0 0.0 0.0
184 0.0 0.0 0.0
187 0.0 0.0 0.0
189 0.0 0.0 0.0
183 0.0 0.0 0.0
185 0.0 0.0 0.0
181 0.0 0.0 0.0
186 0.0 0.0 0.0
190 0.0 0.0 0.0
38 0.0 0.0 0.0
32 0.0 0.0 0.0
34 0.0 0.0 0.0
37 0.0 0.0 0.0
39 0.0 0.0 0.0
33 0.0 0.0 0.0
35 0.0 0.0 0.0
31 0.0 0.0 0.0
36 0.0 0.0 0.0
40 0.0 0.0 0.0
128 0.0 0.0 0.0
122 0.0 0.0 0.0
124 0.0 0.0 0.0
127 0.0 0.0 0.0
129 0.0 0.0 0.0
123 0.0 0.0 0.0
125 0.0 0.0 0.0
121 0.0 0.0 0.0
126 0.0 0.0 0.0
130 0.0 0.0 0.0
218 0.0 0.0 0.0
212 0.0 0.0 0.0
214 0.0 0.0 0.0
217 0.0 0.0 0.0
219 0.0 0.0 0.0
213 0.0 0.0 0.0
215 0.0 0.0 0.0
211 0.0 0.0 0.0
216 0.0 0.0 0.0
220 0.0 0.0 0.0
68 0.0 0.0 0.0
62 0.0 0.0 0.0
64 0.0 0.0 0.0
67 0.0 0.0 0.0
69 0.0 0.0 0.0
63 0.0 0.0 0.0
65 0.0 0.0 0.0
61 0.0 0.0 0.0
66 0.0 0.0 0.0
70 0.0 0.0 0.0
158 0.0 0.0 0.0
152 0.0 0.0 0.0
154 0.0 0.0 0.0
157 0.0 0.0 0.0
159 0.0 0.0 0.0
153 0.0 0.0 0.0
155 0.0 0.0 0.0
151 0.0 0.0 0.0
156 0.0 0.0 0.0
160 0.0 0.0 0.0
248 0.0 0.0 0.0
242 0.0 0.0 0.0
244 0.0 0.0 0.0
247 0.0 0.0 0.0
249 0.0 0.0 0.0
243 0.0 0.0 0.0
245 0.0 0.0 0.0
241 0.0 0.0 0.0
246 0.0 0.0 0.0
250 0.0 0.0 0.0
18 0.0 0.0 0.0
12 0.0 0.0 0.0
14 0.0 0.0 0.0
17 0.0 0.0 0.0
19 0.0 0.0 0.0
13 0.0 0.0 0.0
15 0.0 0.0 0.0
11 0.0 0.0 0.0
16 0.0 0.0 0.0
20 0.0 0.0 0.0
108 0.0 0.0 0.0
102 0.0 0.0 0.0
104 0.0 0.0 0.0
107 0.0 0.0 0.0
109 0.0 0.0 0.0
103 0.0 0.0 0.0
105 0.0 0.0 0.0
101 0.0 0.0 0.0
106 0.0 0.0 0.0
110 0.0 0.0 0.0
198 0.0 0.0 0.0
192 0.0 0.0 0.0
194 0.0 0.0 0.0
197 0.0 0.0 0.0
199 0.0 0.0 0.0
193 0.0 0.0 0.0
195 0.0 0.0 0.0
191 0.0 0.0 0.0
196 0.0 0.0 0.0
200 0.0 0.0 0.0
48 0.0 0.0 0.0
42 0.0 0.0 0.0
44 0.0 0.0 0.0
47 0.0 0.0 0.0
49 0.0 0.0 0.0
43 0.0 0.0 0.0
45 0.0 0.0 0.0
41 0.0 0.0 0.0
46 0.0 0.0 0.0
50 0.0 0.0 0.0
138 0.0 0.0 0.0
132 0.0 0.0 0.0
134 0.0 0.0 0.0
137 0.0 0.0 0.0
139 0.0 0.0 0.0
133 0.0 0.0 0.0
135 0.0 0.0 0.0
131 0.0 0.0 0.0
136 0.0 0.0 0.0
140 0.0 0.0 0.0
228 0.0 0.0 0.0
222 0.0 0.0 0.0
224 0.0 0.0 0.0
227 0.0 0.0 0.0
229 0.0 0.0 0.0
223 0.0 0.0 0.0
225 0.0 0.0 0.0
221 0.0 0.0 0.0
226 0.0 0.0 0.0
230 0.0 0.0 0.0
78 0.0 0.0 0.0
72 0.0 0.0 0.0
74 0.0 0.0 0.0
77 0.0 0.0 0.0
79 0.0 0.0 0.0
73 0.0 0.0 0.0
75 0.0 0.0 0.0
71 0.0 0.0 0.0
76 0.0 0.0 0.0
80 0.0 0.0 0.0
168 0.0 0.0 0.0
162 0.0 0.0 0.0
164 0.0 0.0 0.0
167 0.0 0.0 0.0
169 0.0 0.0 0.0
163 0.0 0.0 0.0
165 0.0 0.0 0.0
161 0.0 0.0 0.0
166 0.0 0.0 0.0
170 0.0 0.0 0.0
258 0.0 0.0 0.0
252 0.0 0.0 0.0
254 0.0 0.0 0.0
257 0.0 0.0 0.0
259 0.0 0.0 0.0
253 0.0 0.0 0.0
255 0.0 0.0 0.0
251 0.0 0.0 0.0
256 0.0 0.0 0.0
260 0.0 0.0 0.0
28 0.0 0.0 0.0
22 0.0 0.0 0.0
24 0.0 0.0 0.0
27 0.0 0.0 0.0
29 0.0 0.0 0.0
23 0.0 0.0 0.0
25 0.0 0.0 0.0
21 0.0 0.0 0.0
26 0.0 0.0 0.0
30 0.0 0.0 0.0
118 0.0 0.0 0.0
112 0.0 0.0 0.0
114 0.0 0.0 0.0
117 0.0 0.0 0.0
119 0.0 0.0 0.0
113 0.0 0.0 0.0
115 0.0 0.0 0.0
111 0.0 0.0 0.0
116 0.0 0.0 0.0
120 0.0 0.0 0.0
208 0.0 0.0 0.0
202 0.0 0.0 0.0
204 0.0 0.0 0.0
207 0.0 0.0 0.0
209 0.0 0.0 0.0
203 0.0 0.0 0.0
205 0.0 0.0 0.0
201 0.0 0.0 0.0
206 0.0 0.0 0.0
210 0.0 0.0 0.0
58 0.0 0.0 0.0
52 0.0 0.0 0.0
54 0.0 0.0 0.0
57 0.0 0.0 0.0
59 0.0 0.0 0.0
53 0.0 0.0 0.0
55 0.0 0.0 0.0
51 0.0 0.0 0.0
56 0.0 0.0 0.0
60 0.0 0.0 0.0
148 0.0 0.0 0.0
142 0.0 0.0 0.0
144 0.0 0.0 0.0
147 0.0 0.0 0.0
149 0.0 0.0 0.0
143 0.0 0.0 0.0
145 0.0 0.0 0.0
141 0.0 0.0 0.0
146 0.0 0.0 0.0
150 0.0 0.0 0.0
238 0.0 0.0 0.0
232 0.0 0.0 0.0
234 0.0 0.0 0.0
237 0.0 0.0 0.0
239 0.0 0.0 0.0
233 0.0 0.0 0.0
235 0.0 0.0 0.0
231 0.0 0.0 0.0
236 0.0 0.0 0.0
240 0.0 0.0 0.0
88 0.0 0.0 0.0
82 0.0 0.0 0.0
84 0.0 0.0 0.0
87 0.0 0.0 0.0
89 0.0 0.0 0.0
83 0.0 0.0 0.0
85 0.0 0.0 0.0
81 0.0 0.0 0.0
86 0.0 0.0 0.0
90 0.0 0.0 0.0
178 0.0 0.0 0.0
172 0.0 0.0 0.0
174 0.0 0.0 0.0
177 0.0 0.0 0.0
179 0.0 0.0 0.0
173 0.0 0.0 0.0
175 0.0 0.0 0.0
171 0.0 0.0 0.0
176 0.0 0.0 0.0
180 0.0 0.0 0.0
268 0.0 0.0 0.0
262 0.0 0.0 0.0
264 0.0 0.0 0.0
267 0.0 0.0 0.0
269 0.0 0.0 0.0
263 0.0 0.0 0.0
265 0.0 0.0 0.0
261 0.0 0.0 0.0
266 0.0 0.0 0.0
270 0.0 0.0 0.0
